12
	Energy:      10.5736998
C          0.03126        0.60647       -0.00000
C          1.22903       -0.11649        0.00000
C          2.45401        0.55934        0.00000
C          2.48122        1.95811       -0.00000
C          1.28345        2.68107       -0.00000
C          0.05847        2.00524       -0.00000
H         -0.86816        2.56454       -0.00000
H         -0.91642        0.08363        0.00000
H          1.20798       -1.19862        0.00000
H          3.38064        0.00004        0.00000
H          3.42890        2.48095       -0.00000
H          1.30450        3.76320       -0.00000
