18
	Energy:       7.1245417
C          2.20391        0.88905       -0.54490
C          2.44101        2.40516       -0.48557
C          1.30047        3.15172       -1.19277
H          3.40884        2.65227       -0.97216
H          2.49302        2.73020        0.57710
C         -0.04854        2.79704       -0.55034
H          1.28386        2.86844       -2.26845
H          1.47118        4.24750       -1.12474
C         -0.28565        1.28093       -0.60967
H         -0.86776        3.32544       -1.08342
H         -0.05210        3.13082        0.51088
C          0.85490        0.53436        0.09753
H         -0.33766        0.95589       -1.67234
H         -1.25346        1.03382       -0.12308
H          0.68419       -0.56142        0.02950
H          0.87151        0.81764        1.17321
H          3.02313        0.36064       -0.01182
H          2.20746        0.55526       -1.60613
