15
	Energy:      11.6788912
C          2.10242        1.25578       -0.30540
C          2.25154        2.54854       -0.83538
C          1.12648        3.34445       -1.07452
C         -0.15132        2.85637       -0.78696
C         -0.30643        1.57129       -0.25964
C          0.81594        0.77230       -0.01906
C          3.29843        0.38933       -0.04299
H          3.22108       -0.54402       -0.63947
H          3.34105        0.12886        1.03554
H          4.24377        0.90406       -0.31748
H          3.23475        2.94095       -1.06342
H          1.24533        4.33977       -1.48285
H         -1.02079        3.47364       -0.97265
H         -1.29630        1.19419       -0.03727
H          0.68358       -0.22194        0.38981
